<?xml version="1.0" encoding="UTF-8"?>

<!-- generated on 2024-05-13 22:41:36 by Eclipse SUMO sumo Version 1.18.0
<configuration xmlns:xsi="http://www.w3.org/2001/XMLSchema-instance" xsi:noNamespaceSchemaLocation="http://sumo.dlr.de/xsd/sumoConfiguration.xsd">

    <input>
        <net-file value="/home/svadlmat/UTC/utc/data/scenarios/lust_25200_32400/config/../../../maps/sumo/lust.net.xml"/>
        <additional-files value="/home/svadlmat/UTC/utc/data/scenarios/lust_25200_32400/config/      ../../lust_25200_32400/additional/lust_25200_32400.rou.xml,/home/svadlmat/UTC/utc/data/scenarios/lust_25200_32400/config/      ../../lust_25200_32400/additional/lust_25200_32400_vehicles.add.xml,/home/svadlmat/UTC/utc/data/scenarios/lust_25200_32400/config/      ../../Lust/additional/tll.static.xml,/home/svadlmat/UTC/utc/data/scenarios/lust_25200_32400/config/../../lust_25200_32400/config/edge_data.add.xml"/>
    </input>

    <time>
        <begin value="25200"/>
        <step-length value="0.5"/>
    </time>

    <report>
        <no-warnings value="true"/>
    </report>

</configuration>
-->

<meandata xmlns:xsi="http://www.w3.org/2001/XMLSchema-instance" xsi:noNamespaceSchemaLocation="http://sumo.dlr.de/xsd/meandata_file.xsd">
    <interval begin="25200.00" end="51333.50" id="0">
        <edge id="--30244#0" sampledSeconds="4494.07" traveltime="61.39" overlapTraveltime="62.16" density="0.27" laneDensity="0.13" occupancy="0.07" waitingTime="827.00" timeLoss="1088.22" speed="10.41" speedRelative="0.75" departed="2" arrived="40" entered="90" left="52" laneChangedFrom="13" laneChangedTo="13"/>
        <edge id="--30244#1" sampledSeconds="1021.41" traveltime="11.20" overlapTraveltime="11.60" density="0.27" laneDensity="0.13" occupancy="0.06" waitingTime="0.00" timeLoss="48.52" speed="13.02" speedRelative="0.94" departed="3" arrived="7" entered="91" left="87" laneChangedFrom="6" laneChangedTo="6"/>
        <edge id="--30244#2" sampledSeconds="1100.91" traveltime="10.04" overlapTraveltime="10.46" density="0.32" laneDensity="0.16" occupancy="0.08" waitingTime="0.00" timeLoss="54.22" speed="12.95" speedRelative="0.93" departed="2" arrived="7" entered="108" left="103" laneChangedFrom="8" laneChangedTo="8"/>
        <edge id="--30244#3" sampledSeconds="1421.83" traveltime="11.82" overlapTraveltime="12.24" density="0.36" laneDensity="0.18" occupancy="0.09" waitingTime="0.00" timeLoss="65.72" speed="12.92" speedRelative="0.93" departed="3" arrived="9" entered="120" left="114" laneChangedFrom="14" laneChangedTo="14"/>
        <edge id="--30244#4" sampledSeconds="1336.86" traveltime="11.10" overlapTraveltime="11.50" density="0.36" laneDensity="0.18" occupancy="0.09" waitingTime="0.00" timeLoss="66.64" speed="12.92" speedRelative="0.93" departed="5" arrived="7" entered="116" left="114" laneChangedFrom="29" laneChangedTo="29"/>
        <edge id="--30246" sampledSeconds="69.31" traveltime="13.15" overlapTraveltime="13.64" density="0.02" laneDensity="0.02" occupancy="0.01" waitingTime="0.00" timeLoss="18.79" speed="10.29" speedRelative="0.74" departed="0" arrived="13" entered="13" left="0" laneChangedFrom="0" laneChangedTo="0"/>
        <edge id="--30248" sampledSeconds="44.62" traveltime="8.36" overlapTraveltime="8.89" density="0.02" laneDensity="0.02" occupancy="0.01" waitingTime="0.00" timeLoss="11.41" speed="10.81" speedRelative="0.78" departed="3" arrived="0" entered="3" left="6" laneChangedFrom="0" laneChangedTo="0"/>
        <edge id="--30250" sampledSeconds="152.26" traveltime="6.41" overlapTraveltime="6.98" density="0.08" laneDensity="0.08" occupancy="0.04" waitingTime="0.00" timeLoss="25.91" speed="11.46" speedRelative="0.83" departed="2" arrived="0" entered="21" left="23" laneChangedFrom="0" laneChangedTo="0"/>
        <edge id="--30252" sampledSeconds="190.20" traveltime="12.35" overlapTraveltime="13.04" density="0.05" laneDensity="0.05" occupancy="0.03" waitingTime="3.00" timeLoss="42.40" speed="10.58" speedRelative="0.76" departed="10" arrived="6" entered="12" left="16" laneChangedFrom="0" laneChangedTo="0"/>
        <edge id="--30254#0" sampledSeconds="14.70" traveltime="3.11" overlapTraveltime="4.36" density="0.05" laneDensity="0.05" occupancy="0.02" waitingTime="0.00" timeLoss="10.45" speed="3.98" speedRelative="0.29" departed="0" arrived="8" entered="8" left="0" laneChangedFrom="0" laneChangedTo="0"/>
        <edge id="--30254#1" sampledSeconds="49.01" traveltime="5.06" overlapTraveltime="5.72" density="0.08" laneDensity="0.08" occupancy="0.03" waitingTime="0.00" timeLoss="30.39" speed="5.12" speedRelative="0.37" departed="12" arrived="0" entered="0" left="12" laneChangedFrom="0" laneChangedTo="0"/>
        <edge id="--30256#0" sampledSeconds="8793.82" traveltime="45.09" overlapTraveltime="46.14" density="2.16" laneDensity="0.72" occupancy="0.35" waitingTime="5915.00" timeLoss="6582.81" speed="3.49" speedRelative="0.25" departed="2" arrived="4" entered="192" left="190" laneChangedFrom="148" laneChangedTo="148"/>
        <edge id="--30256#1" sampledSeconds="8023.98" traveltime="44.59" overlapTraveltime="45.57" density="0.86" laneDensity="0.29" occupancy="0.14" waitingTime="2739.00" timeLoss="3365.13" speed="7.96" speedRelative="0.57" departed="4" arrived="17" entered="181" left="168" laneChangedFrom="198" laneChangedTo="198"/>
        <edge id="--30256#2" sampledSeconds="4249.64" traveltime="22.71" overlapTraveltime="23.65" density="1.67" laneDensity="0.56" occupancy="0.27" waitingTime="2489.00" timeLoss="2904.83" speed="4.32" speedRelative="0.31" departed="0" arrived="4" entered="182" left="178" laneChangedFrom="69" laneChangedTo="69"/>
        <edge id="--30256#3" sampledSeconds="1402.36" traveltime="8.27" overlapTraveltime="8.66" density="0.54" laneDensity="0.18" occupancy="0.09" waitingTime="0.00" timeLoss="175.06" speed="11.98" speedRelative="0.86" departed="9" arrived="1" entered="158" left="166" laneChangedFrom="51" laneChangedTo="51"/>
        <edge id="--30258" sampledSeconds="28.02" traveltime="10.09" overlapTraveltime="10.17" density="0.02" laneDensity="0.02" occupancy="0.01" waitingTime="0.00" timeLoss="17.51" speed="5.25" speedRelative="0.38" departed="7" arrived="0" entered="0" left="7" laneChangedFrom="0" laneChangedTo="0"/>
        <edge id="--30260" sampledSeconds="11707.39" traveltime="39.16" overlapTraveltime="39.71" density="0.74" laneDensity="0.37" occupancy="0.18" waitingTime="133.00" timeLoss="792.36" speed="15.28" speedRelative="0.92" departed="8" arrived="40" entered="311" left="279" laneChangedFrom="72" laneChangedTo="72"/>
        <edge id="--30262#0" sampledSeconds="3267.46" traveltime="12.30" overlapTraveltime="12.91" density="0.81" laneDensity="0.81" occupancy="0.39" waitingTime="9.00" timeLoss="377.43" speed="12.39" speedRelative="0.89" departed="3" arrived="1" entered="252" left="254" laneChangedFrom="0" laneChangedTo="0"/>
        <edge id="--30262#1" sampledSeconds="2200.55" traveltime="8.96" overlapTraveltime="9.34" density="0.71" laneDensity="0.71" occupancy="0.34" waitingTime="0.00" timeLoss="119.13" speed="13.24" speedRelative="0.95" departed="2" arrived="2" entered="236" left="236" laneChangedFrom="0" laneChangedTo="0"/>
        <edge id="--30262#2" sampledSeconds="2011.10" traveltime="9.77" overlapTraveltime="10.34" density="0.63" laneDensity="0.63" occupancy="0.30" waitingTime="3.50" timeLoss="234.17" speed="12.32" speedRelative="0.89" departed="1" arrived="0" entered="194" left="195" laneChangedFrom="0" laneChangedTo="0"/>
        <edge id="--30264#0" sampledSeconds="67.88" traveltime="16.97" overlapTraveltime="17.32" density="0.01" laneDensity="0.01" occupancy="0.01" waitingTime="0.00" timeLoss="12.61" speed="10.62" speedRelative="0.76" departed="4" arrived="0" entered="2" left="6" laneChangedFrom="0" laneChangedTo="0"/>
        <edge id="--30264#1" sampledSeconds="9.81" traveltime="2.75" overlapTraveltime="3.31" density="0.02" laneDensity="0.02" occupancy="0.01" waitingTime="0.00" timeLoss="4.95" speed="6.43" speedRelative="0.46" departed="0" arrived="4" entered="6" left="2" laneChangedFrom="0" laneChangedTo="0"/>
        <edge id="--30266" sampledSeconds="1478.40" traveltime="33.65" overlapTraveltime="34.67" density="0.44" laneDensity="0.44" occupancy="0.22" waitingTime="926.50" timeLoss="1062.18" speed="3.86" speedRelative="0.28" departed="6" arrived="2" entered="41" left="45" laneChangedFrom="0" laneChangedTo="0"/>
        <edge id="--30270#0" sampledSeconds="247.18" traveltime="18.35" overlapTraveltime="18.77" density="0.04" laneDensity="0.04" occupancy="0.02" waitingTime="0.00" timeLoss="39.07" speed="11.72" speedRelative="0.84" departed="0" arrived="24" entered="24" left="0" laneChangedFrom="0" laneChangedTo="0"/>
        <edge id="--30270#1" sampledSeconds="400.83" traveltime="2.83" overlapTraveltime="3.21" density="0.44" laneDensity="0.44" occupancy="0.19" waitingTime="0.00" timeLoss="42.76" speed="12.37" speedRelative="0.89" departed="2" arrived="1" entered="124" left="125" laneChangedFrom="0" laneChangedTo="0"/>
        <edge id="--30272" sampledSeconds="280.76" traveltime="11.27" overlapTraveltime="11.83" density="0.08" laneDensity="0.08" occupancy="0.04" waitingTime="0.00" timeLoss="32.05" speed="12.19" speedRelative="0.88" departed="0" arrived="4" entered="26" left="22" laneChangedFrom="0" laneChangedTo="0"/>
        <edge id="--30274" sampledSeconds="4.81" traveltime="1.78" overlapTraveltime="2.40" density="0.01" laneDensity="0.01" occupancy="0.00" waitingTime="0.00" timeLoss="1.85" speed="9.20" speedRelative="0.66" departed="0" arrived="0" entered="2" left="2" laneChangedFrom="0" laneChangedTo="0"/>
        <edge id="--30278" sampledSeconds="67.57" traveltime="0.92" overlapTraveltime="1.52" density="0.40" laneDensity="0.20" occupancy="0.06" waitingTime="1.50" timeLoss="30.17" speed="7.57" speedRelative="0.54" departed="1" arrived="0" entered="44" left="45" laneChangedFrom="33" laneChangedTo="33"/>
        <edge id="--30280" sampledSeconds="999.97" traveltime="15.33" overlapTraveltime="15.94" density="0.20" laneDensity="0.20" occupancy="0.10" waitingTime="1.50" timeLoss="106.96" speed="12.49" speedRelative="0.90" departed="3" arrived="4" entered="63" left="62" laneChangedFrom="0" laneChangedTo="0"/>
        <edge id="--30282" sampledSeconds="20832.29" traveltime="251.48" overlapTraveltime="252.54" density="2.31" laneDensity="2.31" occupancy="1.15" waitingTime="18157.50" timeLoss="18726.90" speed="1.39" speedRelative="0.10" departed="8" arrived="3" entered="79" left="84" laneChangedFrom="0" laneChangedTo="0" teleported="13"/>
        <edge id="--30284#0" sampledSeconds="28.27" traveltime="7.52" overlapTraveltime="8.05" density="0.02" laneDensity="0.02" occupancy="0.01" waitingTime="0.00" timeLoss="8.75" speed="9.35" speedRelative="0.67" departed="0" arrived="6" entered="6" left="0" laneChangedFrom="0" laneChangedTo="0"/>
        <edge id="--30286#0" sampledSeconds="66.22" traveltime="9.47" overlapTraveltime="10.02" density="0.03" laneDensity="0.03" occupancy="0.01" waitingTime="0.00" timeLoss="22.11" speed="9.11" speedRelative="0.66" departed="0" arrived="15" entered="15" left="0" laneChangedFrom="0" laneChangedTo="0"/>
        <edge id="--30286#1" sampledSeconds="376.00" traveltime="7.25" overlapTraveltime="7.90" density="0.16" laneDensity="0.16" occupancy="0.07" waitingTime="0.00" timeLoss="42.99" speed="12.14" speedRelative="0.87" departed="2" arrived="0" entered="46" left="48" laneChangedFrom="0" laneChangedTo="0"/>
        <edge id="--30286#2" sampledSeconds="409.78" traveltime="8.58" overlapTraveltime="8.97" density="0.14" laneDensity="0.14" occupancy="0.07" waitingTime="0.00" timeLoss="17.91" speed="13.06" speedRelative="0.94" departed="0" arrived="1" entered="46" left="45" laneChangedFrom="0" laneChangedTo="0"/>
        <edge id="--30286#3" sampledSeconds="181.63" traveltime="3.52" overlapTraveltime="3.90" density="0.15" laneDensity="0.15" occupancy="0.07" waitingTime="0.00" timeLoss="10.91" speed="12.82" speedRelative="0.92" departed="1" arrived="1" entered="46" left="46" laneChangedFrom="0" laneChangedTo="0"/>
        <edge id="--30286#4" sampledSeconds="250.66" traveltime="5.15" overlapTraveltime="5.54" density="0.15" laneDensity="0.15" occupancy="0.07" waitingTime="0.00" timeLoss="25.27" speed="12.19" speedRelative="0.88" departed="3" arrived="0" entered="43" left="46" laneChangedFrom="0" laneChangedTo="0"/>
        <edge id="--30288#0" sampledSeconds="71.94" traveltime="6.96" overlapTraveltime="7.55" density="0.05" laneDensity="0.05" occupancy="0.02" waitingTime="0.00" timeLoss="24.75" speed="8.69" speedRelative="0.63" departed="6" arrived="0" entered="5" left="11" laneChangedFrom="0" laneChangedTo="0"/>
        <edge id="--30288#1" sampledSeconds="10.11" traveltime="6.35" overlapTraveltime="6.85" density="0.01" laneDensity="0.01" occupancy="0.00" waitingTime="0.00" timeLoss="1.14" speed="9.83" speedRelative="0.71" departed="0" arrived="1" entered="2" left="1" laneChangedFrom="0" laneChangedTo="0"/>
        <edge id="--30290" sampledSeconds="233.39" traveltime="13.20" overlapTraveltime="13.82" density="0.06" laneDensity="0.06" occupancy="0.03" waitingTime="0.00" timeLoss="42.77" speed="11.25" speedRelative="0.81" departed="7" arrived="1" entered="13" left="19" laneChangedFrom="0" laneChangedTo="0"/>
        <edge id="--30294#0" sampledSeconds="8032.48" traveltime="11.76" overlapTraveltime="12.53" density="2.62" laneDensity="2.62" occupancy="1.25" waitingTime="598.50" timeLoss="2321.47" speed="9.76" speedRelative="0.70" departed="3" arrived="0" entered="639" left="642" laneChangedFrom="0" laneChangedTo="0"/>
        <edge id="--30294#1" sampledSeconds="1109.43" traveltime="15.74" overlapTraveltime="16.50" density="0.27" laneDensity="0.27" occupancy="0.13" waitingTime="173.50" timeLoss="292.58" speed="9.96" speedRelative="0.72" departed="3" arrived="2" entered="67" left="68" laneChangedFrom="0" laneChangedTo="0"/>
        <edge id="--30296" sampledSeconds="117.97" traveltime="25.81" overlapTraveltime="26.26" density="0.02" laneDensity="0.02" occupancy="0.01" waitingTime="0.00" timeLoss="19.80" speed="11.11" speedRelative="0.80" departed="0" arrived="12" entered="12" left="0" laneChangedFrom="0" laneChangedTo="0"/>
        <edge id="--30304#0" sampledSeconds="1013.22" traveltime="72.02" overlapTraveltime="72.54" density="0.04" laneDensity="0.04" occupancy="0.02" waitingTime="0.00" timeLoss="91.67" speed="12.55" speedRelative="0.90" departed="18" arrived="8" entered="8" left="18" laneChangedFrom="0" laneChangedTo="0"/>
        <edge id="--30304#1" sampledSeconds="58.72" traveltime="7.13" overlapTraveltime="8.04" density="0.03" laneDensity="0.03" occupancy="0.01" waitingTime="1.00" timeLoss="17.94" speed="9.53" speedRelative="0.69" departed="4" arrived="0" entered="5" left="9" laneChangedFrom="0" laneChangedTo="0"/>
        <edge id="--30304#2" sampledSeconds="39.20" traveltime="6.81" overlapTraveltime="7.46" density="0.02" laneDensity="0.02" occupancy="0.01" waitingTime="0.00" timeLoss="9.25" speed="10.14" speedRelative="0.73" departed="3" arrived="1" entered="5" left="7" laneChangedFrom="0" laneChangedTo="0"/>
        <edge id="--30306#0" sampledSeconds="121.13" traveltime="21.10" overlapTraveltime="21.54" density="0.02" laneDensity="0.02" occupancy="0.01" waitingTime="0.00" timeLoss="13.78" speed="11.60" speedRelative="0.84" departed="0" arrived="9" entered="9" left="0" laneChangedFrom="0" laneChangedTo="0"/>
        <edge id="--30306#1" sampledSeconds="131.22" traveltime="10.10" overlapTraveltime="10.54" density="0.04" laneDensity="0.04" occupancy="0.02" waitingTime="0.00" timeLoss="7.37" speed="12.63" speedRelative="0.91" departed="0" arrived="2" entered="13" left="11" laneChangedFrom="0" laneChangedTo="0"/>
        <edge id="--30306#2" sampledSeconds="206.66" traveltime="5.16" overlapTraveltime="5.53" density="0.12" laneDensity="0.12" occupancy="0.05" waitingTime="0.00" timeLoss="13.60" speed="13.06" speedRelative="0.94" departed="1" arrived="2" entered="38" left="37" laneChangedFrom="0" laneChangedTo="0"/>
        <edge id="--30306#3" sampledSeconds="162.92" traveltime="3.53" overlapTraveltime="3.91" density="0.13" laneDensity="0.13" occupancy="0.06" waitingTime="0.00" timeLoss="6.19" speed="13.38" speedRelative="0.96" departed="0" arrived="1" entered="42" left="41" laneChangedFrom="0" laneChangedTo="0"/>
        <edge id="--30306#4" sampledSeconds="226.45" traveltime="4.22" overlapTraveltime="4.59" density="0.16" laneDensity="0.16" occupancy="0.07" waitingTime="0.00" timeLoss="13.58" speed="13.07" speedRelative="0.94" departed="0" arrived="2" entered="51" left="49" laneChangedFrom="0" laneChangedTo="0"/>
        <edge id="--30306#5" sampledSeconds="708.96" traveltime="13.29" overlapTraveltime="13.70" density="0.16" laneDensity="0.16" occupancy="0.08" waitingTime="0.00" timeLoss="38.32" speed="12.86" speedRelative="0.93" departed="6" arrived="1" entered="51" left="56" laneChangedFrom="0" laneChangedTo="0"/>
        <edge id="--30306#6" sampledSeconds="223.49" traveltime="2.31" overlapTraveltime="2.81" density="0.32" laneDensity="0.32" occupancy="0.13" waitingTime="0.00" timeLoss="39.73" speed="11.34" speedRelative="0.82" departed="2" arrived="2" entered="80" left="80" laneChangedFrom="0" laneChangedTo="0"/>
        <edge id="--30314#0" sampledSeconds="8308.55" traveltime="15.09" overlapTraveltime="15.45" density="1.28" laneDensity="0.43" occupancy="0.21" waitingTime="0.00" timeLoss="1175.12" speed="16.43" speedRelative="0.85" departed="1" arrived="10" entered="542" left="533" laneChangedFrom="222" laneChangedTo="222"/>
        <edge id="--30314#1" sampledSeconds="17758.09" traveltime="51.54" overlapTraveltime="52.17" density="2.32" laneDensity="0.77" occupancy="0.38" waitingTime="7056.00" timeLoss="12499.39" speed="5.71" speedRelative="0.29" departed="632" arrived="0" entered="0" left="632" laneChangedFrom="244" laneChangedTo="244"/>
        <edge id="--30316" sampledSeconds="2730.57" traveltime="115.57" overlapTraveltime="116.22" density="0.08" laneDensity="0.08" occupancy="0.04" waitingTime="240.50" timeLoss="422.02" speed="11.80" speedRelative="0.85" departed="6" arrived="40" entered="43" left="9" laneChangedFrom="0" laneChangedTo="0"/>
        <edge id="--30318" sampledSeconds="241.76" traveltime="7.23" overlapTraveltime="7.80" density="0.11" laneDensity="0.11" occupancy="0.05" waitingTime="0.00" timeLoss="38.96" speed="11.74" speedRelative="0.85" departed="0" arrived="0" entered="31" left="31" laneChangedFrom="0" laneChangedTo="0"/>
        <edge id="--30320" sampledSeconds="54.57" traveltime="20.07" overlapTraveltime="20.53" density="0.01" laneDensity="0.01" occupancy="0.00" waitingTime="0.00" timeLoss="11.26" speed="10.89" speedRelative="0.78" departed="0" arrived="8" entered="8" left="0" laneChangedFrom="0" laneChangedTo="0"/>
        <edge id="--30328#0" sampledSeconds="384.24" traveltime="11.87" overlapTraveltime="12.54" density="0.10" laneDensity="0.10" occupancy="0.05" waitingTime="0.00" timeLoss="51.95" speed="11.66" speedRelative="0.84" departed="7" arrived="5" entered="29" left="31" laneChangedFrom="0" laneChangedTo="0"/>
        <edge id="--30328#1" sampledSeconds="152.22" traveltime="12.23" overlapTraveltime="12.60" density="0.04" laneDensity="0.04" occupancy="0.02" waitingTime="0.50" timeLoss="31.27" speed="10.85" speedRelative="0.78" departed="10" arrived="5" entered="9" left="14" laneChangedFrom="0" laneChangedTo="0"/>
        <edge id="--30328#2" sampledSeconds="45.33" traveltime="2.13" overlapTraveltime="2.52" density="0.07" laneDensity="0.07" occupancy="0.03" waitingTime="0.00" timeLoss="7.04" speed="11.47" speedRelative="0.83" departed="0" arrived="5" entered="21" left="16" laneChangedFrom="0" laneChangedTo="0"/>
        <edge id="--30328#3" sampledSeconds="110.13" traveltime="4.63" overlapTraveltime="5.03" density="0.08" laneDensity="0.08" occupancy="0.03" waitingTime="0.50" timeLoss="12.71" speed="11.96" speedRelative="0.86" departed="1" arrived="4" entered="24" left="21" laneChangedFrom="0" laneChangedTo="0"/>
        <edge id="--30330" sampledSeconds="23.85" traveltime="11.09" overlapTraveltime="11.34" density="0.01" laneDensity="0.01" occupancy="0.01" waitingTime="0.00" timeLoss="13.63" speed="6.01" speedRelative="0.43" departed="5" arrived="0" entered="0" left="5" laneChangedFrom="0" laneChangedTo="0"/>
        <edge id="--30334#0" sampledSeconds="646.74" traveltime="18.63" overlapTraveltime="19.60" density="0.60" laneDensity="0.60" occupancy="0.29" waitingTime="455.00" timeLoss="535.49" speed="2.38" speedRelative="0.17" departed="0" arrived="0" entered="33" left="33" laneChangedFrom="0" laneChangedTo="0"/>
        <edge id="--30334#1" sampledSeconds="432.72" traveltime="23.02" overlapTraveltime="23.78" density="0.06" laneDensity="0.06" occupancy="0.03" waitingTime="0.00" timeLoss="60.01" speed="11.77" speedRelative="0.85" departed="10" arrived="4" entered="16" left="22" laneChangedFrom="0" laneChangedTo="0"/>
        <edge id="--30334#2" sampledSeconds="115.37" traveltime="18.74" overlapTraveltime="19.07" density="0.02" laneDensity="0.02" occupancy="0.01" waitingTime="0.00" timeLoss="25.47" speed="10.78" speedRelative="0.78" departed="9" arrived="0" entered="0" left="9" laneChangedFrom="0" laneChangedTo="0"/>
        <edge id="--30336#0" sampledSeconds="4899.83" traveltime="23.42" overlapTraveltime="23.76" density="0.53" laneDensity="0.18" occupancy="0.09" waitingTime="0.00" timeLoss="410.05" speed="15.12" speedRelative="0.91" departed="1" arrived="45" entered="232" left="188" laneChangedFrom="174" laneChangedTo="174"/>
        <edge id="--30336#1" sampledSeconds="17116.14" traveltime="69.64" overlapTraveltime="70.64" density="0.79" laneDensity="0.26" occupancy="0.13" waitingTime="3436.00" timeLoss="4897.67" speed="11.78" speedRelative="0.71" departed="3" arrived="85" entered="285" left="203" laneChangedFrom="315" laneChangedTo="315"/>
        <edge id="--30336#2" sampledSeconds="11722.84" traveltime="30.84" overlapTraveltime="31.65" density="1.46" laneDensity="0.49" occupancy="0.24" waitingTime="4266.00" timeLoss="5661.72" speed="9.87" speedRelative="0.51" departed="1" arrived="34" entered="388" left="355" laneChangedFrom="208" laneChangedTo="208"/>
        <edge id="--30344" sampledSeconds="13.23" traveltime="1.47" overlapTraveltime="1.89" density="0.03" laneDensity="0.03" occupancy="0.01" waitingTime="0.00" timeLoss="1.14" speed="12.64" speedRelative="0.91" departed="0" arrived="0" entered="7" left="7" laneChangedFrom="0" laneChangedTo="0"/>
        <edge id="--30346#0" sampledSeconds="893.15" traveltime="24.45" overlapTraveltime="25.36" density="0.28" laneDensity="0.28" occupancy="0.14" waitingTime="475.00" timeLoss="577.72" speed="4.96" speedRelative="0.36" departed="2" arrived="0" entered="34" left="36" laneChangedFrom="0" laneChangedTo="0"/>
        <edge id="--30346#1" sampledSeconds="233.03" traveltime="15.23" overlapTraveltime="15.95" density="0.05" laneDensity="0.05" occupancy="0.03" waitingTime="4.00" timeLoss="44.76" speed="11.09" speedRelative="0.80" departed="7" arrived="1" entered="12" left="18" laneChangedFrom="0" laneChangedTo="0"/>
        <edge id="--30348#0" sampledSeconds="4375.22" traveltime="25.91" overlapTraveltime="26.75" density="1.25" laneDensity="0.63" occupancy="0.31" waitingTime="2191.50" timeLoss="2721.01" speed="5.19" speedRelative="0.37" departed="6" arrived="1" entered="162" left="167" laneChangedFrom="4" laneChangedTo="4"/>
        <edge id="--30348#1" sampledSeconds="449.03" traveltime="2.46" overlapTraveltime="2.84" density="0.53" laneDensity="0.27" occupancy="0.12" waitingTime="0.00" timeLoss="21.50" speed="13.09" speedRelative="0.94" departed="0" arrived="2" entered="160" left="158" laneChangedFrom="33" laneChangedTo="33"/>
        <edge id="--30348#2" sampledSeconds="2082.22" traveltime="8.70" overlapTraveltime="9.37" density="0.72" laneDensity="0.36" occupancy="0.17" waitingTime="29.50" timeLoss="230.00" speed="12.41" speedRelative="0.89" departed="2" arrived="9" entered="226" left="219" laneChangedFrom="110" laneChangedTo="110"/>
        <edge id="--30348#3" sampledSeconds="603.88" traveltime="4.15" overlapTraveltime="4.53" density="0.43" laneDensity="0.21" occupancy="0.10" waitingTime="0.00" timeLoss="30.78" speed="13.11" speedRelative="0.94" departed="3" arrived="2" entered="132" left="133" laneChangedFrom="10" laneChangedTo="10"/>
        <edge id="--30348#4" sampledSeconds="1192.78" traveltime="9.15" overlapTraveltime="9.55" density="0.40" laneDensity="0.20" occupancy="0.09" waitingTime="0.00" timeLoss="109.44" speed="12.56" speedRelative="0.90" departed="1" arrived="9" entered="130" left="122" laneChangedFrom="12" laneChangedTo="12"/>
        <edge id="--30348#5" sampledSeconds="3816.66" traveltime="28.91" overlapTraveltime="29.87" density="0.92" laneDensity="0.46" occupancy="0.23" waitingTime="1967.65" timeLoss="2307.56" speed="5.46" speedRelative="0.39" departed="6" arrived="6" entered="128" left="128" laneChangedFrom="22" laneChangedTo="22"/>
        <edge id="--30350" sampledSeconds="36.80" traveltime="5.99" overlapTraveltime="6.46" density="0.05" laneDensity="0.05" occupancy="0.02" waitingTime="0.00" timeLoss="22.85" speed="5.20" speedRelative="0.37" departed="10" arrived="0" entered="0" left="10" laneChangedFrom="0" laneChangedTo="0"/>
        <edge id="--30352" sampledSeconds="218.01" traveltime="11.37" overlapTraveltime="11.95" density="0.07" laneDensity="0.07" occupancy="0.03" waitingTime="0.00" timeLoss="50.24" speed="10.45" speedRelative="0.75" departed="10" arrived="2" entered="14" left="22" laneChangedFrom="0" laneChangedTo="0"/>
        <edge id="--30354" sampledSeconds="1267.74" traveltime="12.79" overlapTraveltime="13.68" density="0.39" laneDensity="0.39" occupancy="0.19" waitingTime="230.00" timeLoss="417.19" speed="9.36" speedRelative="0.67" departed="2" arrived="1" entered="92" left="93" laneChangedFrom="0" laneChangedTo="0"/>
        <edge id="--30358#0" sampledSeconds="1178.67" traveltime="21.50" overlapTraveltime="22.37" density="0.40" laneDensity="0.20" occupancy="0.10" waitingTime="623.50" timeLoss="805.00" speed="5.22" speedRelative="0.31" departed="2" arrived="7" entered="55" left="50" laneChangedFrom="13" laneChangedTo="13"/>
        <edge id="--30358#1" sampledSeconds="915.36" traveltime="23.22" overlapTraveltime="24.01" density="0.21" laneDensity="0.11" occupancy="0.05" waitingTime="399.00" timeLoss="529.91" speed="7.07" speedRelative="0.42" departed="2" arrived="10" entered="41" left="33" laneChangedFrom="10" laneChangedTo="10"/>
        <edge id="--30358#10" sampledSeconds="640.03" traveltime="9.03" overlapTraveltime="9.67" density="0.45" laneDensity="0.23" occupancy="0.11" waitingTime="306.50" timeLoss="403.68" speed="6.14" speedRelative="0.37" departed="1" arrived="3" entered="67" left="65" laneChangedFrom="36" laneChangedTo="36"/>
        <edge id="--30358#11" sampledSeconds="634.43" traveltime="6.46" overlapTraveltime="6.98" density="0.28" laneDensity="0.14" occupancy="0.07" waitingTime="0.00" timeLoss="131.73" speed="13.01" speedRelative="0.78" departed="0" arrived="10" entered="95" left="85" laneChangedFrom="4" laneChangedTo="4"/>
        <edge id="--30358#12" sampledSeconds="4786.53" traveltime="29.98" overlapTraveltime="30.79" density="1.82" laneDensity="0.91" occupancy="0.45" waitingTime="3196.00" timeLoss="3787.83" speed="3.44" speedRelative="0.21" departed="2" arrived="7" entered="159" left="154" laneChangedFrom="121" laneChangedTo="121" teleported="1"/>
        <edge id="--30358#13" sampledSeconds="217.56" traveltime="4.02" overlapTraveltime="4.41" density="0.15" laneDensity="0.07" occupancy="0.03" waitingTime="0.00" timeLoss="29.38" speed="14.11" speedRelative="0.85" departed="0" arrived="3" entered="51" left="48" laneChangedFrom="0" laneChangedTo="0"/>
        <edge id="--30358#14" sampledSeconds="183.66" traveltime="3.07" overlapTraveltime="3.41" density="0.16" laneDensity="0.08" occupancy="0.04" waitingTime="0.00" timeLoss="22.18" speed="14.30" speedRelative="0.86" departed="1" arrived="5" entered="55" left="51" laneChangedFrom="18" laneChangedTo="18"/>
        <edge id="--30358#15" sampledSeconds="1087.70" traveltime="22.10" overlapTraveltime="22.44" density="0.13" laneDensity="0.06" occupancy="0.03" waitingTime="0.00" timeLoss="105.07" speed="14.73" speedRelative="0.88" departed="4" arrived="33" entered="64" left="35" laneChangedFrom="15" laneChangedTo="15"/>
        <edge id="--30358#16" sampledSeconds="844.61" traveltime="10.40" overlapTraveltime="10.74" density="0.20" laneDensity="0.10" occupancy="0.05" waitingTime="0.00" timeLoss="55.13" speed="15.61" speedRelative="0.94" departed="0" arrived="14" entered="87" left="73" laneChangedFrom="30" laneChangedTo="30"/>
        <edge id="--30358#17" sampledSeconds="365.35" traveltime="4.34" overlapTraveltime="4.75" density="0.22" laneDensity="0.11" occupancy="0.05" waitingTime="0.00" timeLoss="48.29" speed="14.35" speedRelative="0.86" departed="0" arrived="6" entered="79" left="73" laneChangedFrom="4" laneChangedTo="4"/>
        <edge id="--30358#18" sampledSeconds="1518.51" traveltime="21.68" overlapTraveltime="22.00" density="0.17" laneDensity="0.09" occupancy="0.04" waitingTime="0.00" timeLoss="123.03" speed="15.41" speedRelative="0.92" departed="4" arrived="27" entered="82" left="59" laneChangedFrom="39" laneChangedTo="39"/>
        <edge id="--30358#2" sampledSeconds="1043.39" traveltime="27.58" overlapTraveltime="28.51" density="0.23" laneDensity="0.11" occupancy="0.06" waitingTime="519.00" timeLoss="648.74" speed="6.33" speedRelative="0.38" departed="0" arrived="11" entered="43" left="32" laneChangedFrom="7" laneChangedTo="7"/>